sphere data

10 atoms
2 atom types

 0.0 0.1 xlo xhi
 0.0 0.1 ylo yhi
 0.0 0.05 zlo zhi

Atoms

1 1 0.0005 2500 0.05 0.05 0.0005 
2 1 0.0005 2500 0.05 0.05 0.0010 
3 1 0.0005 2500 0.05 0.05 0.0015 
4 1 0.0005 2500 0.05 0.05 0.0020 
5 1 0.0005 2500 0.05 0.05 0.0025 
6 1 0.0005 2500 0.05 0.05 0.0030 
7 1 0.0005 2500 0.05 0.05 0.0035 
8 1 0.0005 2500 0.05 0.05 0.0040 
9 1 0.0005 2500 0.05 0.05 0.0045 
10 1 0.0005 2500 0.05 0.00 0.0049 
